,Element_Name,Symbol,Period,Group,Block,Atomic_Number,Atomic_Weight,Covalent_Radius,vdW_Radius
0,Actinium,Ac,7Act,20,f,89,[227],2.15,2.0
1,Aluminium,Al,3,13,p,13,26.982,1.21,2.0
2,Americium,Am,7Act,20,f,95,[243],1.8,2.0
3,Antimony,Sb,5,15,p,51,121.76,1.39,2.0
4,Argon,Ar,3,18,p,18,39.948,1.51,1.88
5,Arsenic,As,4,15,p,33,74.922,1.21,1.85
6,Astatine,At,6,17,p,85,[210],1.21,2.0
7,Barium,Ba,6,2,s,56,137.327,2.15,2.0
8,Berkelium,Bk,7Act,20,f,97,[247],1.54,2.0
9,Beryllium,Be,2,2,s,4,9.012,0.96,2.0
10,Bismuth,Bi,6,15,p,83,208.98,1.48,2.0
11,Bohrium,Bh,7,7,d,107,[264],1.5,2.0
12,Boron,B,2,13,p,5,10.811,0.83,2.0
13,Bromine,Br,4,17,p,35,79.904,1.21,1.85
14,Cadmium,Cd,5,12,d,48,112.411,1.54,1.58
15,Caesium,Cs,6,1,s,55,132.905,2.44,2.0
16,Calcium,Ca,4,2,s,20,40.078,1.76,2.0
17,Californium,Cf,7Act,20,f,98,[251],1.83,2.0
18,Carbon,C,2,14,p,6,12.011,0.68,1.7
19,Cerium,Ce,6Lan,19,f,58,140.116,2.04,2.0
20,Chlorine,Cl,3,17,p,17,35.453,0.99,1.75
21,Chromium,Cr,4,6,d,24,51.996,1.39,2.0
22,Cobalt,Co,4,9,d,27,58.933,1.26,2.0
23,Copper,Cu,4,11,d,29,63.546,1.32,1.4
24,Curium,Cm,7Act,20,f,96,[247],1.69,2.0
25,Darmstadtium,Ds,7,10,d,110,[271],1.5,2.0
26,Dubnium,Db,7,5,d,105,[262],1.5,2.0
27,Dysprosium,Dy,6Lan,19,f,66,162.5,1.92,2.0
28,Einsteinium,Es,7Act,20,f,99,[252],1.5,2.0
29,Erbium,Er,6Lan,19,f,68,167.26,1.89,2.0
30,Europium,Eu,6Lan,19,f,63,151.964,1.98,2.0
31,Fermium,Fm,7Act,20,f,100,[257],1.5,2.0
32,Fluorine,F,2,17,p,9,18.998,0.64,1.47
33,Francium,Fr,7,1,s,87,[223],2.6,2.0
34,Gadolinium,Gd,6Lan,19,f,64,157.25,1.96,2.0
35,Gallium,Ga,4,13,p,31,69.723,1.22,1.87
36,Germanium,Ge,4,14,p,32,72.61,1.17,2.0
37,Gold,Au,6,11,d,79,196.967,1.36,1.66
38,Hafnium,Hf,6,4,d,72,178.49,1.75,2.0
39,Hassium,Hs,7,8,d,108,[269],1.5,2.0
40,Helium,He,1,18,p,2,4.003,1.5,1.4
41,Holmium,Ho,6Lan,19,f,67,164.93,1.92,2.0
42,Hydrogen,H,1,1,s,1,1.008,0.23,1.09
43,Indium,In,5,13,p,49,114.818,1.42,1.93
44,Iodine,I,5,17,p,53,126.904,1.4,1.98
45,Iridium,Ir,6,9,d,77,192.217,1.41,2.0
46,Iron,Fe,4,8,d,26,55.845,1.52,2.0
47,Krypton,Kr,4,18,p,36,83.8,1.5,2.02
48,Lanthanum,La,6Lan,19,f,57,138.906,2.07,2.0
49,Lawrencium,Lr,7,3,d,103,[262],1.5,2.0
50,Lead,Pb,6,14,p,82,207.2,1.46,2.02
51,Lithium,Li,2,1,s,3,6.941,1.28,1.82
52,Lutetium,Lu,6,3,d,71,174.967,1.87,2.0
53,Magnesium,Mg,3,2,s,12,24.305,1.41,1.73
54,Manganese,Mn,4,7,d,25,54.938,1.61,2.0
55,Meitnerium,Mt,7,9,d,109,[268],1.5,2.0
56,Mendelevium,Md,7Act,20,f,101,[258],1.5,2.0
57,Mercury,Hg,6,12,d,80,200.59,1.32,1.55
58,Molybdenum,Mo,5,6,d,42,95.94,1.54,2.0
59,Neodymium,Nd,6Lan,19,f,60,144.24,2.01,2.0
60,Neon,Ne,2,18,p,10,20.18,1.5,1.54
61,Neptunium,Np,7Act,20,f,93,[237],1.9,2.0
62,Nickel,Ni,4,10,d,28,58.693,1.24,1.63
63,Niobium,Nb,5,5,d,41,92.906,1.64,2.0
64,Nitrogen,N,2,15,p,7,14.007,0.68,1.55
65,Nobelium,No,7Act,20,f,102,[259],1.5,2.0
66,Osmium,Os,6,8,d,76,190.23,1.44,2.0
67,Oxygen,O,2,16,p,8,15.999,0.68,1.52
68,Palladium,Pd,5,10,d,46,106.42,1.39,1.63
69,Phosphorus,P,3,15,p,15,30.974,1.05,1.8
70,Platinum,Pt,6,10,d,78,195.078,1.36,1.72
71,Plutonium,Pu,7Act,20,f,94,[244],1.87,2.0
72,Polonium,Po,6,16,p,84,[210],1.4,2.0
73,Potassium,K,4,1,s,19,39.098,2.03,2.75
74,Praseodymium,Pr,6Lan,19,f,59,140.908,2.03,2.0
75,Promethium,Pm,6Lan,19,f,61,[145],1.99,2.0
76,Protactinium,Pa,7Act,20,f,91,231.036,2.0,2.0
77,Radium,Ra,7,2,s,88,[226],2.21,2.0
78,Radon,Rn,6,18,p,86,[222],1.5,2.0
79,Rhenium,Re,6,7,d,75,186.207,1.51,2.0
80,Rhodium,Rh,5,9,d,45,102.906,1.42,2.0
81,Rubidium,Rb,5,1,s,37,85.468,2.2,2.0
82,Ruthenium,Ru,5,8,d,44,101.07,1.46,2.0
83,Rutherfordium,Rf,7,4,d,104,[261],1.5,2.0
84,Samarium,Sm,6Lan,19,f,62,150.36,1.98,2.0
85,Scandium,Sc,4,3,d,21,44.956,1.7,2.0
86,Seaborgium,Sg,7,6,d,106,[266],1.5,2.0
87,Selenium,Se,4,16,p,34,78.96,1.22,1.9
88,Silicon,Si,3,14,p,14,28.086,1.2,2.1
89,Silver,Ag,5,11,d,47,107.868,1.45,1.72
90,Sodium,Na,3,1,s,11,22.991,1.66,2.27
91,Strontium,Sr,5,2,s,38,87.62,1.95,2.0
92,Sulphur,S,3,16,p,16,32.066,1.02,1.8
93,Tantalum,Ta,6,5,d,73,180.948,1.7,2.0
94,Technetium,Tc,5,7,d,43,[98],1.47,2.0
95,Tellurium,Te,5,16,p,52,127.6,1.47,2.06
96,Terbium,Tb,6Lan,19,f,65,158.925,1.94,2.0
97,Thallium,Tl,6,13,p,81,204.383,1.45,1.96
98,Thorium,Th,7Act,20,f,90,232.038,2.06,2.0
99,Thulium,Tm,6Lan,19,f,69,168.934,1.9,2.0
100,Tin,Sn,5,14,p,50,118.71,1.39,2.17
101,Titanium,Ti,4,4,d,22,47.867,1.6,2.0
102,Tungsten,W,6,6,d,74,183.84,1.62,2.0
103,Uranium,U,7Act,20,f,92,238.029,1.96,1.86
104,Vanadium,V,4,5,d,23,50.942,1.53,2.0
105,Xenon,Xe,5,18,p,54,131.29,1.5,2.16
106,Ytterbium,Yb,6Lan,19,f,70,173.04,1.87,2.0
107,Yttrium,Y,5,3,d,39,88.906,1.9,2.0
108,Zinc,Zn,4,12,d,30,65.39,1.22,1.39
109,Zirconium,Zr,5,4,d,40,91.224,1.75,2.0
110,Deuterium,D,1,1,s,1,1.008,0.23,1.09